[Molden Format]
[Atoms] Angs
O     1    8         0.0000000000        0.0000000000        0.1196030000
H     2    1         0.0000000000        0.7618130000       -0.4784100000
H     3    1         0.0000000000       -0.7618130000       -0.4784100000
[GTO]
  1 0
  s 3 1.00
  0.1307093214d+03 0.1543289673d+00
  0.2380886605d+02 0.5353281423d+00
  0.6443608313d+01 0.4446345422d+00
  sp 3 1.00
  0.5033151319d+01 -0.9996722919d-01 0.1559162750d+00
  0.1169596125d+01 0.3995128261d+00 0.6076837186d+00
  0.3803889600d+00 0.7001154689d+00 0.3919573931d+00
 
  2 0
  s 3 1.00
  0.3425250914d+01 0.1543289673d+00
  0.6239137298d+00 0.5353281423d+00
  0.1688554040d+00 0.4446345422d+00
 
  3 0
  s 3 1.00
  0.3425250914d+01 0.1543289673d+00
  0.6239137298d+00 0.5353281423d+00
  0.1688554040d+00 0.4446345422d+00
 
[MO]
 Sym=            1
 Ene=   -20.2441800000000     
 Spin= Alpha
 Occup=    2.000000    
     1        0.9941600000
     2        0.0263200000
     3        0.0000000000
     4        0.0000000000
     5       -0.0042600000
     6       -0.0058400000
     7       -0.0058400000
 Sym=            2
 Ene=   -1.26362000000000     
 Spin= Alpha
 Occup=    2.000000    
     1       -0.2331700000
     2        0.8374900000
     3        0.0000000000
     4        0.0000000000
     5       -0.1264900000
     6        0.1577900000
     7        0.1577900000
 Sym=            3
 Ene=  -0.610740000000000     
 Spin= Alpha
 Occup=    2.000000    
     1        0.0000000000
     2        0.0000000000
     3        0.0000000000
     4        0.6071900000
     5        0.0000000000
     6        0.4461700000
     7       -0.4461700000
 Sym=            4
 Ene=  -0.453510000000000     
 Spin= Alpha
 Occup=    2.000000    
     1       -0.1030700000
     2        0.5354400000
     3        0.0000000000
     4        0.0000000000
     5        0.7718300000
     6       -0.2831800000
     7       -0.2831800000
 Sym=            5
 Ene=  -0.391120000000000     
 Spin= Alpha
 Occup=    2.000000    
     1        0.0000000000
     2        0.0000000000
     3        1.0000000000
     4        0.0000000000
     5        0.0000000000
     6        0.0000000000
     7        0.0000000000
 Sym=            6
 Ene=   0.595890000000000     
 Spin= Alpha
 Occup=   0.0000000E+00
     1 -0.130440000000000     
     2  0.863430000000000     
     3  0.000000000000000E+000
     4  0.000000000000000E+000
     5 -0.745860000000000     
     6 -0.788160000000000     
     7 -0.788160000000000     
 Sym=            7
 Ene=   0.726820000000000     
 Spin= Alpha
 Occup=   0.0000000E+00
     1  0.000000000000000E+000
     2  0.000000000000000E+000
     3  0.000000000000000E+000
     4  0.981910000000000     
     5  0.000000000000000E+000
     6 -0.829080000000000     
     7  0.829080000000000     
